<?xml version="1.0" encoding="UTF-8"?>

<!-- generated on 2025-06-09 17:41:59 by Eclipse SUMO GUI Version 1.23.1
<sumoConfiguration xmlns:xsi="http://www.w3.org/2001/XMLSchema-instance" xsi:noNamespaceSchemaLocation="http://sumo.dlr.de/xsd/sumoConfiguration.xsd">

    <input>
        <net-file value="SUMO/config/../network/simple.net.xml"/>
        <route-files value="SUMO/config/../routes/random_routes.rou.xml"/>
    </input>

    <output>
        <tripinfo-output value="tripinfo.xml"/>
    </output>

    <time>
        <begin value="0"/>
        <end value="1000"/>
        <step-length value="0.1"/>
    </time>

    <traci_server>
        <remote-port value="60406"/>
    </traci_server>

    <gui_only>
        <start value="true"/>
    </gui_only>

</sumoConfiguration>
-->

<tripinfos xmlns:xsi="http://www.w3.org/2001/XMLSchema-instance" xsi:noNamespaceSchemaLocation="http://sumo.dlr.de/xsd/tripinfo_file.xsd">
    <tripinfo id="rand_veh0" depart="1.40" departLane="E2TL_0" departPos="5.10" departSpeed="0.00" departDelay="0.00" arrival="52.00" arrivalLane="TL2N_0" arrivalPos="289.60" arrivalSpeed="14.70" duration="50.60" routeLength="583.13" waitingTime="3.20" waitingCount="1" stopTime="0.00" timeLoss="10.25" rerouteNo="0" devices="tripinfo_rand_veh0" vType="car" speedFactor="1.06" vaporized=""/>
    <tripinfo id="rand_veh1" depart="2.10" departLane="N2TL_0" departPos="10.10" departSpeed="0.00" departDelay="0.00" arrival="53.90" arrivalLane="TL2W_0" arrivalPos="289.60" arrivalSpeed="12.87" duration="51.80" routeLength="578.13" waitingTime="0.00" waitingCount="0" stopTime="0.00" timeLoss="6.53" rerouteNo="0" devices="tripinfo_rand_veh1" vType="truck" speedFactor="0.94" vaporized=""/>
    <tripinfo id="rand_veh4" depart="7.80" departLane="E2TL_0" departPos="10.10" departSpeed="0.00" departDelay="3.60" arrival="54.10" arrivalLane="TL2W_1" arrivalPos="289.60" arrivalSpeed="14.06" duration="46.30" routeLength="589.90" waitingTime="0.00" waitingCount="0" stopTime="0.00" timeLoss="5.08" rerouteNo="0" devices="tripinfo_rand_veh4" vType="truck" speedFactor="1.03" vaporized=""/>
    <tripinfo id="rand_veh2" depart="4.20" departLane="E2TL_0" departPos="10.10" departSpeed="0.00" departDelay="1.50" arrival="55.90" arrivalLane="TL2N_0" arrivalPos="289.60" arrivalSpeed="13.80" duration="51.70" routeLength="578.13" waitingTime="0.00" waitingCount="0" stopTime="0.00" timeLoss="9.69" rerouteNo="0" devices="tripinfo_rand_veh2" vType="truck" speedFactor="1.01" vaporized=""/>
    <tripinfo id="rand_veh10" depart="14.00" departLane="E2TL_0" departPos="12.10" departSpeed="0.00" departDelay="0.00" arrival="59.40" arrivalLane="TL2N_0" arrivalPos="289.60" arrivalSpeed="15.05" duration="45.40" routeLength="576.13" waitingTime="0.00" waitingCount="0" stopTime="0.00" timeLoss="6.66" rerouteNo="0" devices="tripinfo_rand_veh10" vType="bus" speedFactor="1.09" vaporized=""/>
    <tripinfo id="rand_veh6" depart="6.90" departLane="S2TL_0" departPos="5.10" departSpeed="0.00" departDelay="0.00" arrival="65.80" arrivalLane="TL2N_0" arrivalPos="289.60" arrivalSpeed="14.15" duration="58.90" routeLength="594.90" waitingTime="10.40" waitingCount="1" stopTime="0.00" timeLoss="17.92" rerouteNo="0" devices="tripinfo_rand_veh6" vType="car" speedFactor="1.05" vaporized=""/>
    <tripinfo id="rand_veh3" depart="5.90" departLane="N2TL_0" departPos="10.10" departSpeed="0.00" departDelay="3.10" arrival="67.30" arrivalLane="TL2S_0" arrivalPos="289.60" arrivalSpeed="14.82" duration="61.40" routeLength="589.90" waitingTime="9.80" waitingCount="1" stopTime="0.00" timeLoss="22.15" rerouteNo="0" devices="tripinfo_rand_veh3" vType="truck" speedFactor="1.08" vaporized=""/>
    <tripinfo id="rand_veh8" depart="10.80" departLane="S2TL_0" departPos="10.10" departSpeed="0.00" departDelay="0.00" arrival="69.70" arrivalLane="TL2N_0" arrivalPos="289.60" arrivalSpeed="13.02" duration="58.90" routeLength="589.90" waitingTime="3.40" waitingCount="1" stopTime="0.00" timeLoss="13.54" rerouteNo="0" devices="tripinfo_rand_veh8" vType="truck" speedFactor="0.94" vaporized=""/>
    <tripinfo id="rand_veh12" depart="15.20" departLane="S2TL_1" departPos="5.10" departSpeed="0.00" departDelay="0.00" arrival="70.70" arrivalLane="TL2N_1" arrivalPos="289.60" arrivalSpeed="14.13" duration="55.50" routeLength="594.90" waitingTime="0.00" waitingCount="0" stopTime="0.00" timeLoss="14.51" rerouteNo="0" devices="tripinfo_rand_veh12" vType="car" speedFactor="1.05" vaporized=""/>
    <tripinfo id="rand_veh7" depart="10.00" departLane="S2TL_1" departPos="5.10" departSpeed="0.00" departDelay="0.00" arrival="70.90" arrivalLane="TL2E_0" arrivalPos="289.60" arrivalSpeed="12.14" duration="60.90" routeLength="583.13" waitingTime="1.80" waitingCount="1" stopTime="0.00" timeLoss="12.69" rerouteNo="0" devices="tripinfo_rand_veh7" vType="car" speedFactor="0.89" vaporized=""/>
    <tripinfo id="rand_veh15" depart="17.90" departLane="N2TL_0" departPos="12.10" departSpeed="0.00" departDelay="0.00" arrival="71.20" arrivalLane="TL2W_0" arrivalPos="289.60" arrivalSpeed="12.55" duration="53.30" routeLength="576.13" waitingTime="0.00" waitingCount="0" stopTime="0.00" timeLoss="7.64" rerouteNo="0" devices="tripinfo_rand_veh15" vType="bus" speedFactor="0.93" vaporized=""/>
    <tripinfo id="rand_veh5" depart="5.70" departLane="N2TL_1" departPos="2.10" departSpeed="0.00" departDelay="0.00" arrival="72.50" arrivalLane="TL2S_0" arrivalPos="289.60" arrivalSpeed="11.29" duration="66.80" routeLength="597.90" waitingTime="6.00" waitingCount="1" stopTime="0.00" timeLoss="14.96" rerouteNo="0" devices="tripinfo_rand_veh5" vType="motorcycle" speedFactor="0.83" vaporized=""/>
    <tripinfo id="rand_veh21" depart="23.90" departLane="N2TL_0" departPos="5.10" departSpeed="0.00" departDelay="0.00" arrival="73.40" arrivalLane="TL2S_1" arrivalPos="289.60" arrivalSpeed="13.98" duration="49.50" routeLength="594.90" waitingTime="0.00" waitingCount="0" stopTime="0.00" timeLoss="7.10" rerouteNo="0" devices="tripinfo_rand_veh21" vType="car" speedFactor="1.01" vaporized=""/>
    <tripinfo id="rand_veh14" depart="17.20" departLane="S2TL_0" departPos="5.10" departSpeed="0.00" departDelay="0.00" arrival="74.10" arrivalLane="TL2E_1" arrivalPos="289.60" arrivalSpeed="13.36" duration="56.90" routeLength="583.13" waitingTime="0.00" waitingCount="0" stopTime="0.00" timeLoss="13.71" rerouteNo="0" devices="tripinfo_rand_veh14" vType="car" speedFactor="0.99" vaporized=""/>
    <tripinfo id="rand_veh9" depart="14.40" departLane="S2TL_0" departPos="10.10" departSpeed="0.00" departDelay="0.90" arrival="74.50" arrivalLane="TL2E_0" arrivalPos="289.60" arrivalSpeed="11.77" duration="60.10" routeLength="578.13" waitingTime="0.00" waitingCount="0" stopTime="0.00" timeLoss="10.65" rerouteNo="0" devices="tripinfo_rand_veh9" vType="truck" speedFactor="0.86" vaporized=""/>
    <tripinfo id="rand_veh16" depart="18.30" departLane="N2TL_1" departPos="12.10" departSpeed="0.00" departDelay="0.00" arrival="75.80" arrivalLane="TL2W_0" arrivalPos="289.60" arrivalSpeed="12.13" duration="57.50" routeLength="576.13" waitingTime="0.00" waitingCount="0" stopTime="0.00" timeLoss="9.42" rerouteNo="0" devices="tripinfo_rand_veh16" vType="bus" speedFactor="0.88" vaporized=""/>
    <tripinfo id="rand_veh26" depart="28.30" departLane="S2TL_0" departPos="5.10" departSpeed="0.00" departDelay="0.00" arrival="77.90" arrivalLane="TL2N_1" arrivalPos="289.60" arrivalSpeed="12.51" duration="49.60" routeLength="594.90" waitingTime="0.00" waitingCount="0" stopTime="0.00" timeLoss="2.89" rerouteNo="0" devices="tripinfo_rand_veh26" vType="car" speedFactor="0.92" vaporized=""/>
    <tripinfo id="rand_veh11" depart="15.10" departLane="E2TL_1" departPos="1.60" departSpeed="0.00" departDelay="0.00" arrival="82.10" arrivalLane="TL2N_0" arrivalPos="289.60" arrivalSpeed="14.25" duration="67.00" routeLength="586.63" waitingTime="9.30" waitingCount="1" stopTime="0.00" timeLoss="25.10" rerouteNo="0" devices="tripinfo_rand_veh11" vType="bicycle" speedFactor="1.03" vaporized=""/>
    <tripinfo id="rand_veh17" depart="20.20" departLane="E2TL_0" departPos="10.10" departSpeed="0.00" departDelay="1.40" arrival="82.30" arrivalLane="TL2W_0" arrivalPos="289.60" arrivalSpeed="12.79" duration="62.10" routeLength="589.90" waitingTime="7.00" waitingCount="1" stopTime="0.00" timeLoss="16.97" rerouteNo="0" devices="tripinfo_rand_veh17" vType="truck" speedFactor="0.94" vaporized=""/>
    <tripinfo id="rand_veh31" depart="31.10" departLane="E2TL_1" departPos="5.10" departSpeed="0.00" departDelay="0.00" arrival="83.00" arrivalLane="TL2W_1" arrivalPos="289.60" arrivalSpeed="16.02" duration="51.90" routeLength="594.90" waitingTime="0.00" waitingCount="0" stopTime="0.00" timeLoss="14.73" rerouteNo="0" devices="tripinfo_rand_veh31" vType="car" speedFactor="1.15" vaporized=""/>
    <tripinfo id="rand_veh13" depart="15.70" departLane="E2TL_0" departPos="1.60" departSpeed="0.00" departDelay="0.40" arrival="83.30" arrivalLane="TL2N_1" arrivalPos="289.60" arrivalSpeed="15.57" duration="67.60" routeLength="586.63" waitingTime="7.90" waitingCount="1" stopTime="0.00" timeLoss="29.26" rerouteNo="0" devices="tripinfo_rand_veh13" vType="bicycle" speedFactor="1.12" vaporized=""/>
    <tripinfo id="rand_veh20" depart="22.20" departLane="E2TL_0" departPos="2.10" departSpeed="0.00" departDelay="1.00" arrival="84.00" arrivalLane="TL2N_0" arrivalPos="289.60" arrivalSpeed="14.02" duration="61.80" routeLength="586.13" waitingTime="1.20" waitingCount="1" stopTime="0.00" timeLoss="19.58" rerouteNo="0" devices="tripinfo_rand_veh20" vType="motorcycle" speedFactor="1.02" vaporized=""/>
    <tripinfo id="rand_veh23" depart="24.50" departLane="E2TL_1" departPos="5.10" departSpeed="0.00" departDelay="0.00" arrival="85.50" arrivalLane="TL2W_0" arrivalPos="289.60" arrivalSpeed="12.21" duration="61.00" routeLength="594.90" waitingTime="0.50" waitingCount="1" stopTime="0.00" timeLoss="12.77" rerouteNo="0" devices="tripinfo_rand_veh23" vType="car" speedFactor="0.89" vaporized=""/>
    <tripinfo id="rand_veh28" depart="29.50" departLane="E2TL_0" departPos="10.10" departSpeed="0.00" departDelay="0.50" arrival="85.70" arrivalLane="TL2N_0" arrivalPos="289.60" arrivalSpeed="15.59" duration="56.20" routeLength="578.13" waitingTime="0.00" waitingCount="0" stopTime="0.00" timeLoss="18.79" rerouteNo="0" devices="tripinfo_rand_veh28" vType="truck" speedFactor="1.13" vaporized=""/>
    <tripinfo id="rand_veh22" depart="25.80" departLane="E2TL_0" departPos="10.10" departSpeed="0.00" departDelay="1.80" arrival="86.10" arrivalLane="TL2N_1" arrivalPos="289.60" arrivalSpeed="13.41" duration="60.30" routeLength="578.13" waitingTime="0.00" waitingCount="0" stopTime="0.00" timeLoss="16.85" rerouteNo="0" devices="tripinfo_rand_veh22" vType="truck" speedFactor="0.97" vaporized=""/>
    <tripinfo id="rand_veh36" depart="36.10" departLane="E2TL_1" departPos="12.10" departSpeed="0.00" departDelay="0.00" arrival="86.30" arrivalLane="TL2W_1" arrivalPos="289.60" arrivalSpeed="13.17" duration="50.20" routeLength="587.90" waitingTime="0.00" waitingCount="0" stopTime="0.00" timeLoss="6.62" rerouteNo="0" devices="tripinfo_rand_veh36" vType="bus" speedFactor="0.97" vaporized=""/>
    <tripinfo id="rand_veh39" depart="38.00" departLane="E2TL_1" departPos="2.10" departSpeed="0.00" departDelay="1.00" arrival="90.70" arrivalLane="TL2W_0" arrivalPos="289.60" arrivalSpeed="12.40" duration="52.70" routeLength="597.90" waitingTime="0.00" waitingCount="0" stopTime="0.00" timeLoss="4.83" rerouteNo="0" devices="tripinfo_rand_veh39" vType="motorcycle" speedFactor="0.90" vaporized=""/>
    <tripinfo id="rand_veh30" depart="32.50" departLane="S2TL_1" departPos="5.10" departSpeed="0.00" departDelay="2.60" arrival="91.20" arrivalLane="TL2N_1" arrivalPos="289.60" arrivalSpeed="15.99" duration="58.70" routeLength="594.90" waitingTime="6.40" waitingCount="1" stopTime="0.00" timeLoss="22.36" rerouteNo="0" devices="tripinfo_rand_veh30" vType="car" speedFactor="1.18" vaporized=""/>
    <tripinfo id="rand_veh19" depart="25.00" departLane="N2TL_1" departPos="12.10" departSpeed="0.00" departDelay="4.30" arrival="93.70" arrivalLane="TL2W_1" arrivalPos="289.60" arrivalSpeed="16.04" duration="68.70" routeLength="576.13" waitingTime="7.90" waitingCount="1" stopTime="0.00" timeLoss="32.25" rerouteNo="0" devices="tripinfo_rand_veh19" vType="bus" speedFactor="1.16" vaporized=""/>
    <tripinfo id="rand_veh29" depart="30.40" departLane="S2TL_1" departPos="5.10" departSpeed="0.00" departDelay="0.80" arrival="94.40" arrivalLane="TL2N_0" arrivalPos="289.60" arrivalSpeed="12.55" duration="64.00" routeLength="594.90" waitingTime="11.10" waitingCount="1" stopTime="0.00" timeLoss="17.97" rerouteNo="0" devices="tripinfo_rand_veh29" vType="car" speedFactor="0.93" vaporized=""/>
    <tripinfo id="rand_veh34" depart="35.60" departLane="N2TL_1" departPos="2.10" departSpeed="0.00" departDelay="0.00" arrival="95.10" arrivalLane="TL2S_0" arrivalPos="289.60" arrivalSpeed="13.58" duration="59.50" routeLength="597.90" waitingTime="5.20" waitingCount="1" stopTime="0.00" timeLoss="16.19" rerouteNo="0" devices="tripinfo_rand_veh34" vType="motorcycle" speedFactor="0.99" vaporized=""/>
    <tripinfo id="rand_veh38" depart="37.60" departLane="N2TL_1" departPos="2.10" departSpeed="0.00" departDelay="1.30" arrival="95.10" arrivalLane="TL2S_1" arrivalPos="289.60" arrivalSpeed="15.16" duration="57.50" routeLength="597.90" waitingTime="1.20" waitingCount="1" stopTime="0.00" timeLoss="18.37" rerouteNo="0" devices="tripinfo_rand_veh38" vType="motorcycle" speedFactor="1.10" vaporized=""/>
    <tripinfo id="rand_veh18" depart="20.10" departLane="N2TL_1" departPos="1.60" departSpeed="0.00" departDelay="0.00" arrival="96.50" arrivalLane="TL2W_0" arrivalPos="289.60" arrivalSpeed="12.99" duration="76.40" routeLength="586.63" waitingTime="12.10" waitingCount="1" stopTime="0.00" timeLoss="30.43" rerouteNo="0" devices="tripinfo_rand_veh18" vType="bicycle" speedFactor="0.94" vaporized=""/>
    <tripinfo id="rand_veh25" depart="25.90" departLane="S2TL_0" departPos="12.10" departSpeed="0.00" departDelay="0.00" arrival="97.20" arrivalLane="TL2N_0" arrivalPos="289.60" arrivalSpeed="12.04" duration="71.30" routeLength="587.90" waitingTime="13.40" waitingCount="1" stopTime="0.00" timeLoss="22.78" rerouteNo="0" devices="tripinfo_rand_veh25" vType="bus" speedFactor="0.87" vaporized=""/>
    <tripinfo id="rand_veh35" depart="35.60" departLane="S2TL_1" departPos="1.60" departSpeed="0.00" departDelay="0.00" arrival="97.50" arrivalLane="TL2N_1" arrivalPos="289.60" arrivalSpeed="14.11" duration="61.90" routeLength="598.40" waitingTime="0.00" waitingCount="0" stopTime="0.00" timeLoss="19.60" rerouteNo="0" devices="tripinfo_rand_veh35" vType="bicycle" speedFactor="1.02" vaporized=""/>
    <tripinfo id="rand_veh27" depart="29.40" departLane="S2TL_0" departPos="2.10" departSpeed="0.00" departDelay="0.60" arrival="97.60" arrivalLane="TL2E_0" arrivalPos="289.60" arrivalSpeed="13.06" duration="68.20" routeLength="586.13" waitingTime="6.50" waitingCount="1" stopTime="0.00" timeLoss="22.91" rerouteNo="0" devices="tripinfo_rand_veh27" vType="motorcycle" speedFactor="0.95" vaporized=""/>
    <tripinfo id="rand_veh46" depart="47.00" departLane="N2TL_1" departPos="5.10" departSpeed="0.00" departDelay="0.00" arrival="97.70" arrivalLane="TL2S_0" arrivalPos="289.60" arrivalSpeed="13.51" duration="50.70" routeLength="594.90" waitingTime="0.00" waitingCount="0" stopTime="0.00" timeLoss="7.73" rerouteNo="0" devices="tripinfo_rand_veh46" vType="car" speedFactor="1.00" vaporized=""/>
    <tripinfo id="rand_veh43" depart="42.80" departLane="S2TL_1" departPos="2.10" departSpeed="0.00" departDelay="0.00" arrival="98.80" arrivalLane="TL2N_1" arrivalPos="289.60" arrivalSpeed="14.30" duration="56.00" routeLength="597.90" waitingTime="0.00" waitingCount="0" stopTime="0.00" timeLoss="14.49" rerouteNo="0" devices="tripinfo_rand_veh43" vType="motorcycle" speedFactor="1.04" vaporized=""/>
    <tripinfo id="rand_veh51" depart="52.80" departLane="S2TL_1" departPos="10.10" departSpeed="0.00" departDelay="4.40" arrival="100.10" arrivalLane="TL2N_1" arrivalPos="289.60" arrivalSpeed="16.23" duration="47.30" routeLength="589.90" waitingTime="0.00" waitingCount="0" stopTime="0.00" timeLoss="10.94" rerouteNo="0" devices="tripinfo_rand_veh51" vType="truck" speedFactor="1.17" vaporized=""/>
    <tripinfo id="rand_veh32" depart="34.60" departLane="N2TL_0" departPos="5.10" departSpeed="0.00" departDelay="0.00" arrival="100.70" arrivalLane="TL2W_1" arrivalPos="289.60" arrivalSpeed="13.60" duration="66.10" routeLength="583.13" waitingTime="3.70" waitingCount="1" stopTime="0.00" timeLoss="23.52" rerouteNo="0" devices="tripinfo_rand_veh32" vType="car" speedFactor="1.01" vaporized=""/>
    <tripinfo id="rand_veh52" depart="48.70" departLane="N2TL_1" departPos="1.60" departSpeed="0.00" departDelay="0.00" arrival="102.30" arrivalLane="TL2S_1" arrivalPos="289.60" arrivalSpeed="14.06" duration="53.60" routeLength="598.40" waitingTime="0.00" waitingCount="0" stopTime="0.00" timeLoss="11.15" rerouteNo="0" devices="tripinfo_rand_veh52" vType="bicycle" speedFactor="1.02" vaporized=""/>
    <tripinfo id="rand_veh41" depart="39.20" departLane="S2TL_0" departPos="1.60" departSpeed="0.00" departDelay="0.00" arrival="102.40" arrivalLane="TL2N_0" arrivalPos="289.60" arrivalSpeed="13.27" duration="63.20" routeLength="598.40" waitingTime="0.00" waitingCount="0" stopTime="0.00" timeLoss="18.10" rerouteNo="0" devices="tripinfo_rand_veh41" vType="bicycle" speedFactor="0.96" vaporized=""/>
    <tripinfo id="rand_veh24" depart="26.90" departLane="N2TL_1" departPos="2.10" departSpeed="0.00" departDelay="2.00" arrival="103.50" arrivalLane="TL2W_0" arrivalPos="289.60" arrivalSpeed="11.40" duration="76.60" routeLength="586.13" waitingTime="5.30" waitingCount="1" stopTime="0.00" timeLoss="24.59" rerouteNo="0" devices="tripinfo_rand_veh24" vType="motorcycle" speedFactor="0.83" vaporized=""/>
    <tripinfo id="rand_veh37" depart="36.30" departLane="E2TL_0" departPos="1.60" departSpeed="0.00" departDelay="0.00" arrival="106.20" arrivalLane="TL2N_0" arrivalPos="289.60" arrivalSpeed="16.34" duration="69.90" routeLength="586.63" waitingTime="10.10" waitingCount="1" stopTime="0.00" timeLoss="33.40" rerouteNo="0" devices="tripinfo_rand_veh37" vType="bicycle" speedFactor="1.18" vaporized=""/>
    <tripinfo id="rand_veh40" depart="41.50" departLane="E2TL_1" departPos="10.10" departSpeed="0.00" departDelay="4.00" arrival="107.10" arrivalLane="TL2W_0" arrivalPos="289.60" arrivalSpeed="14.24" duration="65.60" routeLength="589.90" waitingTime="11.90" waitingCount="1" stopTime="0.00" timeLoss="24.32" rerouteNo="0" devices="tripinfo_rand_veh40" vType="truck" speedFactor="1.03" vaporized=""/>
    <tripinfo id="rand_veh44" depart="45.60" departLane="E2TL_1" departPos="12.10" departSpeed="0.00" departDelay="0.00" arrival="108.50" arrivalLane="TL2W_1" arrivalPos="289.60" arrivalSpeed="14.21" duration="62.90" routeLength="587.90" waitingTime="6.50" waitingCount="1" stopTime="0.00" timeLoss="22.28" rerouteNo="0" devices="tripinfo_rand_veh44" vType="bus" speedFactor="1.04" vaporized=""/>
    <tripinfo id="rand_veh53" depart="51.20" departLane="E2TL_1" departPos="2.10" departSpeed="0.00" departDelay="2.30" arrival="110.10" arrivalLane="TL2N_0" arrivalPos="289.60" arrivalSpeed="14.97" duration="58.90" routeLength="586.13" waitingTime="0.00" waitingCount="0" stopTime="0.00" timeLoss="19.65" rerouteNo="0" devices="tripinfo_rand_veh53" vType="motorcycle" speedFactor="1.10" vaporized=""/>
    <tripinfo id="rand_veh48" depart="49.30" departLane="E2TL_1" departPos="12.10" departSpeed="0.00" departDelay="1.30" arrival="111.50" arrivalLane="TL2N_0" arrivalPos="289.60" arrivalSpeed="11.84" duration="62.20" routeLength="576.13" waitingTime="0.00" waitingCount="0" stopTime="0.00" timeLoss="14.05" rerouteNo="0" devices="tripinfo_rand_veh48" vType="bus" speedFactor="0.88" vaporized=""/>
    <tripinfo id="rand_veh62" depart="60.50" departLane="E2TL_0" departPos="10.10" departSpeed="0.00" departDelay="0.00" arrival="112.90" arrivalLane="TL2W_0" arrivalPos="289.60" arrivalSpeed="13.94" duration="52.40" routeLength="589.90" waitingTime="0.00" waitingCount="0" stopTime="0.00" timeLoss="10.51" rerouteNo="0" devices="tripinfo_rand_veh62" vType="truck" speedFactor="1.02" vaporized=""/>
    <tripinfo id="rand_veh49" depart="48.20" departLane="E2TL_0" departPos="2.10" departSpeed="0.00" departDelay="0.00" arrival="115.20" arrivalLane="TL2W_1" arrivalPos="289.60" arrivalSpeed="11.76" duration="67.00" routeLength="597.90" waitingTime="0.00" waitingCount="0" stopTime="0.00" timeLoss="16.32" rerouteNo="0" devices="tripinfo_rand_veh49" vType="motorcycle" speedFactor="0.85" vaporized=""/>
    <tripinfo id="rand_veh55" depart="55.90" departLane="N2TL_1" departPos="5.10" departSpeed="0.00" departDelay="6.20" arrival="119.00" arrivalLane="TL2S_1" arrivalPos="289.60" arrivalSpeed="13.41" duration="63.10" routeLength="594.90" waitingTime="11.70" waitingCount="1" stopTime="0.00" timeLoss="20.06" rerouteNo="0" devices="tripinfo_rand_veh55" vType="car" speedFactor="1.00" vaporized=""/>
    <tripinfo id="rand_veh33" depart="36.10" departLane="N2TL_0" departPos="1.60" departSpeed="0.00" departDelay="1.00" arrival="119.60" arrivalLane="TL2W_0" arrivalPos="289.60" arrivalSpeed="16.24" duration="83.50" routeLength="586.63" waitingTime="13.00" waitingCount="1" stopTime="0.00" timeLoss="46.82" rerouteNo="0" devices="tripinfo_rand_veh33" vType="bicycle" speedFactor="1.17" vaporized=""/>
    <tripinfo id="rand_veh61" depart="58.20" departLane="N2TL_0" departPos="5.10" departSpeed="0.00" departDelay="0.00" arrival="120.50" arrivalLane="TL2S_1" arrivalPos="289.60" arrivalSpeed="15.05" duration="62.30" routeLength="594.90" waitingTime="7.00" waitingCount="1" stopTime="0.00" timeLoss="24.01" rerouteNo="0" devices="tripinfo_rand_veh61" vType="car" speedFactor="1.12" vaporized=""/>
</tripinfos>
